
  ___ ___ ___ _ _ _  
 |   |   |_  | | | | 
 | | | | | . | | | | 
 |__ |  _|___|_____|  1.4.0
 |___|_|             

User:   chaolian@i23
Date:   Wed Feb 13 18:05:13 2019
Arch:   x86_64
Pid:    57479
Python: 3.4.5
gpaw:   /bigdata/wonglab/chaolian/.conda/envs/gpaw/lib/python3.4/site-packages/gpaw
_gpaw:  /bigdata/wonglab/chaolian/.conda/envs/gpaw/bin/gpaw-python (00677bce83)
ase:    /bigdata/wonglab/chaolian/.conda/envs/gpaw/lib/python3.4/site-packages/ase (version 3.16.2)
numpy:  /bigdata/wonglab/chaolian/.conda/envs/gpaw/lib/python3.4/site-packages/numpy (version 1.11.3)
scipy:  /bigdata/wonglab/chaolian/.conda/envs/gpaw/lib/python3.4/site-packages/scipy (version 0.18.1)
units:  Angstrom and eV
cores:  24

Input parameters:
  basis: dzp
  kpts: [2 1 1]
  mode: lcao
  occupations: {name: fermi-dirac,
                width: 0.05}
  xc: PBE

System changes: positions, numbers, cell, pbc, initial_charges, initial_magmoms 

Initialize ...

In-setup:
  name: Indium
  id: 4115a36869ad701825fde81bee9eb9d4
  Z: 49
  valence: 13
  core: 36
  charge: 0.0
  file: /rhome/chaolian/bigdata/gpaw-setups-0.9.20000/In.PBE.gz
  cutoffs: 1.14(comp), 2.09(filt), 2.48(core), lmax=2
  valence states:
                energy  radius
    5s(2.00)    -8.203   1.185
    5p(1.00)    -2.521   1.244
    4d(10.00)   -18.629   1.148
    *s          19.008   1.185
    *p          24.691   1.244
    *d           8.583   1.148

  LCAO basis set for In:
    Name: dzp
    File: /rhome/chaolian/bigdata/gpaw-setups-0.9.20000/In.dzp.basis.gz
    Number of radial functions: 7
    Number of spherical harmonics: 23
      l=0, rc=7.7188 Bohr: 5s-sz confined orbital
      l=1, rc=10.7500 Bohr: 5p-sz confined orbital
      l=2, rc=4.4219 Bohr: 4d-sz confined orbital
      l=0, rc=4.5312 Bohr: 5s-dz split-valence wave
      l=1, rc=6.4688 Bohr: 5p-dz split-valence wave
      l=2, rc=2.7344 Bohr: 4d-dz split-valence wave
      l=2, rc=10.7500 Bohr: d-type Gaussian polarization

As-setup:
  name: Arsenic
  id: bf96491e5ab01ad111b1ee6203e85afa
  Z: 33
  valence: 5
  core: 28
  charge: 0.0
  file: /rhome/chaolian/bigdata/gpaw-setups-0.9.20000/As.PBE.gz
  cutoffs: 1.06(comp), 1.87(filt), 2.96(core), lmax=2
  valence states:
                energy  radius
    4s(2.00)   -14.487   1.058
    4p(3.00)    -5.196   1.058
    *s          12.725   1.058
    *p          22.016   1.058
    *d           0.000   1.058

  LCAO basis set for As:
    Name: dzp
    File: /rhome/chaolian/bigdata/gpaw-setups-0.9.20000/As.dzp.basis.gz
    Number of radial functions: 5
    Number of spherical harmonics: 13
      l=0, rc=6.1250 Bohr: 4s-sz confined orbital
      l=1, rc=7.9531 Bohr: 4p-sz confined orbital
      l=0, rc=3.4219 Bohr: 4s-dz split-valence wave
      l=1, rc=4.6094 Bohr: 4p-dz split-valence wave
      l=2, rc=7.9531 Bohr: d-type Gaussian polarization

Reference energy: -7013369.639409

Spin-paired calculation

Occupation numbers:
  Fermi-Dirac: width=0.0500 eV

Convergence criteria:
  Maximum total energy change: 0.0005 eV / electron
  Maximum integral of absolute density change: 0.0001 electrons
  Maximum integral of absolute eigenstate change: 4e-08 eV^2
  Maximum number of iterations: 333

Symmetries present (total): 1

  ( 1  0  0)
  ( 0  1  0)
  ( 0  0  1)

2 k-points: 2 x 1 x 1 Monkhorst-Pack grid
1 k-point in the irreducible part of the Brillouin zone
       k-points in crystal coordinates                weights
   0:     0.25000000    0.00000000    0.00000000          2/2

Wave functions: LCAO
  Diagonalizer: Serial LAPACK
  Atomic Correction: dense with blas
  Datatype: complex
 

Eigensolver
   LCAO using direct dense diagonalizer 

Densities:
  Coarse grid: 44*84*124 grid
  Fine grid: 88*168*248 grid
  Total Charge: 0.000000 

Density mixing:
  Method: separate
  Backend: pulay
  Linear mixing parameter: 0.05
  Mixing with 5 old densities
  Damping of long wave oscillations: 50 

Hamiltonian:
  XC and Coulomb potentials evaluated on a 88*168*248 grid
  Using the PBE Exchange-Correlation functional
  Interpolation: tri-quintic (5. degree polynomial)
  Poisson solver: Jacobi solver with 4 multi-grid levels
    Coarsest grid: 11 x 21 x 31 points
    Warning: Coarse grid has more than 24 points.
             More multi-grid levels recommended.
    Stencil: 6*3+1=19 point O(h^6) finite-difference Laplacian
    Max iterations: 1000
    Tolerance: 2.000000e-10 

Memory estimate:
  Process memory now: 104.20 MiB
  Calculator: 82.32 MiB
    Density: 15.15 MiB
      Arrays: 3.79 MiB
      Localized functions: 9.91 MiB
      Mixer: 1.46 MiB
    Hamiltonian: 5.98 MiB
      Arrays: 2.48 MiB
      XC: 0.00 MiB
      Poisson: 2.82 MiB
      vbar: 0.68 MiB
    Wavefunctions: 61.19 MiB
      C [qnM]: 7.32 MiB
      S, T [2 x qmm]: 40.92 MiB
      P [aqMi]: 0.05 MiB
      TCI: 0.00 MiB
      BasisFunctions: 12.90 MiB
      Eigensolver: 0.00 MiB

Total number of cores used: 24
Domain decomposition: 2 x 3 x 4

Number of atoms: 66
Number of atomic orbitals: 1158
Number of bands in calculation: 414
Bands to converge: occupied states only
Number of valence electrons: 570

... initialized

Initializing position-dependent things.

Density initialized from atomic densities
           .--------------------.  
          /|                    |  
         / |                    |  
        /  |                    |  
       /   |                    |  
      /    |                    |  
     /     |                    |  
    /      |                    |  
   /       |                    |  
  /        |                    |  
 *         |                    |  
 |         |                    |  
 |         |                    |  
 |         |  AAs   AsAs        |  
 |         | InIn      In       |  
 |         | As    As   In      |  
 |       AsInIn   AsAsIn     As |  
 |         |                    |  
 |     As  |              As    |  
 |      InIn    AAsIIn      In  |  
 |         |                    |  
 |  AsIn   |AAsAs     AsAs      |  
 |         | IInIn      IIn     |  
 |         |                    |  
 |       AsAsn    AsAAsIn    As |  
 |         |                    |  
 |     As  |    AAs       As    |  
 |      IIn|       IIn          |  
 |         |                    |  
 |  Asn    | AsAsn      As      |  
 |         |                    |  
 |         As--------As---------.  
 |        /                    /   
 |       /                    /    
 |      /                    /     
 |     /                    /      
 |    /                    /       
 |   /                    /        
 |  /                    /         
 | /                    /          
 |/                    /           
 *--------------------*            

Positions:
   0 In     5.337735    7.472270    7.970000    ( 0.0000,  0.0000,  0.0000)
   1 In     1.066805    7.472270    7.970000    ( 0.0000,  0.0000,  0.0000)
   2 As     7.473195    3.201340    6.460000    ( 0.0000,  0.0000,  0.0000)
   3 As     3.202275    3.201340    6.460000    ( 0.0000,  0.0000,  0.0000)
   4 As     7.473195    7.472270    6.460000    ( 0.0000,  0.0000,  0.0000)
   5 As     3.202275    7.472270    6.460000    ( 0.0000,  0.0000,  0.0000)
   6 As     6.599514    3.254465   19.097113    ( 0.0000,  0.0000,  0.0000)
   7 As     4.089262    3.252764   19.099652    ( 0.0000,  0.0000,  0.0000)
   8 As     6.598042    7.450702   19.104636    ( 0.0000,  0.0000,  0.0000)
   9 As     4.087105    7.448008   19.108941    ( 0.0000,  0.0000,  0.0000)
  10 In     7.337478    1.702854   17.112347    ( 0.0000,  0.0000,  0.0000)
  11 In     3.357263    1.697274   17.115526    ( 0.0000,  0.0000,  0.0000)
  12 In     7.229896    5.354482   17.434875    ( 0.0000,  0.0000,  0.0000)
  13 In     3.456470    5.353035   17.437197    ( 0.0000,  0.0000,  0.0000)
  14 As     5.348668    0.949434   15.558782    ( 0.0000,  0.0000,  0.0000)
  15 As     1.072850    1.047689   15.878132    ( 0.0000,  0.0000,  0.0000)
  16 As     5.342605    5.356707   15.554094    ( 0.0000,  0.0000,  0.0000)
  17 As     1.074352    5.351143   16.048992    ( 0.0000,  0.0000,  0.0000)
  18 In     5.342826    3.177183   14.055639    ( 0.0000,  0.0000,  0.0000)
  19 In     1.074218    3.267344   14.308687    ( 0.0000,  0.0000,  0.0000)
  20 In     5.341628    7.532381   14.047653    ( 0.0000,  0.0000,  0.0000)
  21 In     1.072634    7.438751   14.317662    ( 0.0000,  0.0000,  0.0000)
  22 As     7.546402    3.206176   12.586090    ( 0.0000,  0.0000,  0.0000)
  23 As     3.139468    3.205030   12.582947    ( 0.0000,  0.0000,  0.0000)
  24 As     7.548427    7.472917   12.586645    ( 0.0000,  0.0000,  0.0000)
  25 As     3.133930    7.473693   12.583216    ( 0.0000,  0.0000,  0.0000)
  26 In     7.473195    1.065880   10.990000    ( 0.0000,  0.0000,  0.0000)
  27 In     3.202275    1.065880   10.990000    ( 0.0000,  0.0000,  0.0000)
  28 In     7.473195    5.336800   10.990000    ( 0.0000,  0.0000,  0.0000)
  29 In     3.202275    5.336800   10.990000    ( 0.0000,  0.0000,  0.0000)
  30 As     5.337735    1.065880    9.480000    ( 0.0000,  0.0000,  0.0000)
  31 As     1.066805    1.065880    9.480000    ( 0.0000,  0.0000,  0.0000)
  32 As     5.337735    5.336800    9.480000    ( 0.0000,  0.0000,  0.0000)
  33 As     1.066805    5.336800    9.480000    ( 0.0000,  0.0000,  0.0000)
  34 In     5.337735    3.201340    7.970000    ( 0.0000,  0.0000,  0.0000)
  35 In     1.066805    3.201340    7.970000    ( 0.0000,  0.0000,  0.0000)
  36 In     5.337735   16.014120    7.970000    ( 0.0000,  0.0000,  0.0000)
  37 In     1.066805   16.014120    7.970000    ( 0.0000,  0.0000,  0.0000)
  38 As     7.473195   11.743190    6.460000    ( 0.0000,  0.0000,  0.0000)
  39 As     3.202275   11.743190    6.460000    ( 0.0000,  0.0000,  0.0000)
  40 As     7.473195   16.014120    6.460000    ( 0.0000,  0.0000,  0.0000)
  41 As     3.202275   16.014120    6.460000    ( 0.0000,  0.0000,  0.0000)
  42 In     7.323683    9.002212   17.115921    ( 0.0000,  0.0000,  0.0000)
  43 In     3.355073    9.002986   17.124482    ( 0.0000,  0.0000,  0.0000)
  44 As     5.338439    9.754283   15.556532    ( 0.0000,  0.0000,  0.0000)
  45 As     1.067818    9.652346   15.891659    ( 0.0000,  0.0000,  0.0000)
  46 As     4.466488   13.897032   15.937671    ( 0.0000,  0.0000,  0.0000)
  47 As     1.957821   13.883626   15.981527    ( 0.0000,  0.0000,  0.0000)
  48 In     5.238226   12.063706   14.135684    ( 0.0000,  0.0000,  0.0000)
  49 In     1.153334   11.956007   14.272754    ( 0.0000,  0.0000,  0.0000)
  50 In     5.238023   15.728882   14.133884    ( 0.0000,  0.0000,  0.0000)
  51 In     1.150199   15.808887   14.275148    ( 0.0000,  0.0000,  0.0000)
  52 As     7.491242   11.777422   12.678889    ( 0.0000,  0.0000,  0.0000)
  53 As     3.160145   11.717986   12.525427    ( 0.0000,  0.0000,  0.0000)
  54 As     7.492279   15.981428   12.677787    ( 0.0000,  0.0000,  0.0000)
  55 As     3.156270   16.040031   12.526436    ( 0.0000,  0.0000,  0.0000)
  56 In     7.473195    9.607730   10.990000    ( 0.0000,  0.0000,  0.0000)
  57 In     3.202275    9.607730   10.990000    ( 0.0000,  0.0000,  0.0000)
  58 In     7.473195   13.878650   10.990000    ( 0.0000,  0.0000,  0.0000)
  59 In     3.202275   13.878650   10.990000    ( 0.0000,  0.0000,  0.0000)
  60 As     5.337735    9.607730    9.480000    ( 0.0000,  0.0000,  0.0000)
  61 As     1.066805    9.607730    9.480000    ( 0.0000,  0.0000,  0.0000)
  62 As     5.337735   13.878650    9.480000    ( 0.0000,  0.0000,  0.0000)
  63 As     1.066805   13.878650    9.480000    ( 0.0000,  0.0000,  0.0000)
  64 In     5.337735   11.743190    7.970000    ( 0.0000,  0.0000,  0.0000)
  65 In     1.066805   11.743190    7.970000    ( 0.0000,  0.0000,  0.0000)

Unit cell:
           periodic     x           y           z      points  spacing
  1. axis:    yes    8.540000    0.000000    0.000000    44     0.1941
  2. axis:    yes    0.000000   17.080000    0.000000    84     0.2033
  3. axis:    yes    0.000000    0.000000   25.000000   124     0.2016

  Lengths:   8.540000  17.080000  25.000000
  Angles:   90.000000  90.000000  90.000000

Effective grid spacing dv^(1/3) = 0.1996

                     log10-error:    total        iterations:
           time      wfs    density  energy       fermi  poisson
iter:   1  18:06:10          +inf  -237.059654    2      111    
iter:   2  18:06:55         -1.26  -235.841496    4      53     
iter:   3  18:07:46         -1.30  -233.756913    2      66     
iter:   4  18:08:34         -1.45  -233.568025    34     79     
iter:   5  18:09:23         -1.49  -234.308561    5      67     
iter:   6  18:10:13         -1.73  -233.095595    33     83     
iter:   7  18:10:57         -1.75  -232.489945    3      59     
iter:   8  18:11:49         -2.02  -232.369311    3      39     
iter:   9  18:12:31         -2.25  -232.258163    3      47     
iter:  10  18:13:24         -2.46  -232.203387    4      50     
iter:  11  18:14:05         -2.58  -232.186895    3      21     
iter:  12  18:14:45         -2.71  -232.178936    2      15     
iter:  13  18:15:29         -2.92  -232.176420    3      25     
iter:  14  18:16:10         -3.01  -232.173735    2      11     
iter:  15  18:16:57         -3.12  -232.175929    2      11     
iter:  16  18:17:38         -3.27  -232.177448    3      19     
iter:  17  18:18:18         -3.39  -232.175006    2      6      
iter:  18  18:19:04         -3.49  -232.175319    3      22     
iter:  19  18:19:44         -3.63  -232.177279    2      6      
iter:  20  18:20:31         -3.67  -232.175453    3      17     
iter:  21  18:21:11         -3.67  -232.174008    2      5      
iter:  22  18:21:52         -3.90  -232.175683    2      4      
iter:  23  18:22:31         -4.05  -232.177893    2      5      

Converged after 23 iterations.

Dipole moment: (11.720906, 14.249583, 1.169102) |e|*Ang

Energy contributions relative to reference atoms: (reference = -7013369.639409)

Kinetic:       +536.074272
Potential:     -494.244836
External:        +0.000000
XC:            -276.092824
Entropy (-ST):   -0.299299
Local:           +2.235145
--------------------------
Free energy:   -232.327543
Extrapolated:  -232.177893

Fermi level: -0.32206

 Band  Eigenvalues  Occupancy
    0    -14.84791    2.00000
    1    -14.84496    2.00000
    2    -14.82903    2.00000
    3    -14.82670    2.00000
    4    -14.79931    2.00000
    5    -14.79535    2.00000
    6    -14.74384    2.00000
    7    -14.74021    2.00000
    8    -14.72688    2.00000
    9    -14.72445    2.00000
   10    -14.72107    2.00000
   11    -14.71589    2.00000
   12    -14.71382    2.00000
   13    -14.70817    2.00000
   14    -14.69854    2.00000
   15    -14.69525    2.00000
   16    -14.68647    2.00000
   17    -14.68365    2.00000
   18    -14.67781    2.00000
   19    -14.67289    2.00000
   20    -14.66285    2.00000
   21    -14.65870    2.00000
   22    -14.65665    2.00000
   23    -14.65352    2.00000
   24    -14.65133    2.00000
   25    -14.64891    2.00000
   26    -14.64487    2.00000
   27    -14.63529    2.00000
   28    -14.62962    2.00000
   29    -14.61647    2.00000
   30    -14.61195    2.00000
   31    -14.60518    2.00000
   32    -14.60320    2.00000
   33    -14.59728    2.00000
   34    -14.57489    2.00000
   35    -14.57043    2.00000
   36    -14.55925    2.00000
   37    -14.55646    2.00000
   38    -14.55523    2.00000
   39    -14.54287    2.00000
   40    -14.54190    2.00000
   41    -14.53365    2.00000
   42    -14.53273    2.00000
   43    -14.52510    2.00000
   44    -14.52048    2.00000
   45    -14.51619    2.00000
   46    -14.51094    2.00000
   47    -14.51052    2.00000
   48    -14.50521    2.00000
   49    -14.50143    2.00000
   50    -14.50063    2.00000
   51    -14.49386    2.00000
   52    -14.49360    2.00000
   53    -14.49110    2.00000
   54    -14.48546    2.00000
   55    -14.48494    2.00000
   56    -14.48029    2.00000
   57    -14.47548    2.00000
   58    -14.47387    2.00000
   59    -14.47104    2.00000
   60    -14.47001    2.00000
   61    -14.46744    2.00000
   62    -14.46635    2.00000
   63    -14.46351    2.00000
   64    -14.45889    2.00000
   65    -14.45512    2.00000
   66    -14.45239    2.00000
   67    -14.44993    2.00000
   68    -14.44621    2.00000
   69    -14.44605    2.00000
   70    -14.44138    2.00000
   71    -14.43853    2.00000
   72    -14.43762    2.00000
   73    -14.43487    2.00000
   74    -14.43067    2.00000
   75    -14.42954    2.00000
   76    -14.42717    2.00000
   77    -14.42260    2.00000
   78    -14.42134    2.00000
   79    -14.41871    2.00000
   80    -14.41698    2.00000
   81    -14.40677    2.00000
   82    -14.40130    2.00000
   83    -14.39906    2.00000
   84    -14.39583    2.00000
   85    -14.39204    2.00000
   86    -14.38991    2.00000
   87    -14.38935    2.00000
   88    -14.38710    2.00000
   89    -14.38425    2.00000
   90    -14.38176    2.00000
   91    -14.37900    2.00000
   92    -14.37604    2.00000
   93    -14.37200    2.00000
   94    -14.36414    2.00000
   95    -14.36111    2.00000
   96    -14.35500    2.00000
   97    -14.34229    2.00000
   98    -14.33548    2.00000
   99    -14.32178    2.00000
  100    -14.31649    2.00000
  101    -14.31503    2.00000
  102    -14.30971    2.00000
  103    -14.29802    2.00000
  104    -14.29440    2.00000
  105    -14.29338    2.00000
  106    -14.28762    2.00000
  107    -14.28376    2.00000
  108    -14.28374    2.00000
  109    -14.27776    2.00000
  110    -14.26177    2.00000
  111    -14.25895    2.00000
  112    -14.25820    2.00000
  113    -14.25444    2.00000
  114    -14.24862    2.00000
  115    -14.23944    2.00000
  116    -14.23479    2.00000
  117    -14.22925    2.00000
  118    -14.22897    2.00000
  119    -14.22861    2.00000
  120    -14.21943    2.00000
  121    -14.21501    2.00000
  122    -14.21398    2.00000
  123    -14.21149    2.00000
  124    -14.21076    2.00000
  125    -14.20588    2.00000
  126    -14.18594    2.00000
  127    -14.16469    2.00000
  128    -14.16434    2.00000
  129    -14.15742    2.00000
  130    -14.15113    2.00000
  131    -14.14766    2.00000
  132    -14.14159    2.00000
  133    -14.13340    2.00000
  134    -14.09896    2.00000
  135    -14.09547    2.00000
  136    -14.09349    2.00000
  137    -14.09102    2.00000
  138    -14.08942    2.00000
  139    -14.08199    2.00000
  140    -14.08156    2.00000
  141    -14.07258    2.00000
  142    -14.07079    2.00000
  143    -14.06926    2.00000
  144    -14.06804    2.00000
  145    -14.06127    2.00000
  146    -14.06086    2.00000
  147    -14.05821    2.00000
  148    -14.05542    2.00000
  149    -14.04719    2.00000
  150    -11.62520    2.00000
  151    -11.48638    2.00000
  152    -11.27675    2.00000
  153    -11.26651    2.00000
  154    -11.15186    2.00000
  155    -11.13367    2.00000
  156    -10.93145    2.00000
  157    -10.86263    2.00000
  158    -10.81980    2.00000
  159    -10.61157    2.00000
  160    -10.58801    2.00000
  161    -10.56475    2.00000
  162    -10.51659    2.00000
  163    -10.50396    2.00000
  164    -10.44708    2.00000
  165    -10.40591    2.00000
  166    -10.36572    2.00000
  167    -10.29791    2.00000
  168    -10.27214    2.00000
  169    -10.22038    2.00000
  170    -10.18447    2.00000
  171    -10.09093    2.00000
  172    -10.08401    2.00000
  173     -9.99046    2.00000
  174     -9.95791    2.00000
  175     -9.95149    2.00000
  176     -9.80914    2.00000
  177     -9.80824    2.00000
  178     -9.79711    2.00000
  179     -9.58528    2.00000
  180     -9.52159    2.00000
  181     -9.52051    2.00000
  182     -9.48783    2.00000
  183     -9.29953    2.00000
  184     -9.00627    2.00000
  185     -8.99032    2.00000
  186     -5.71705    2.00000
  187     -5.65695    2.00000
  188     -5.65473    2.00000
  189     -5.64663    2.00000
  190     -5.60483    2.00000
  191     -5.58823    2.00000
  192     -5.52653    2.00000
  193     -5.47529    2.00000
  194     -5.47171    2.00000
  195     -5.46185    2.00000
  196     -5.45445    2.00000
  197     -5.39929    2.00000
  198     -5.35416    2.00000
  199     -5.28381    2.00000
  200     -5.07996    2.00000
  201     -5.06832    2.00000
  202     -5.02487    2.00000
  203     -5.00632    2.00000
  204     -4.84917    2.00000
  205     -4.83798    2.00000
  206     -4.78973    2.00000
  207     -4.67837    2.00000
  208     -4.66333    2.00000
  209     -4.49175    2.00000
  210     -4.44111    2.00000
  211     -4.32886    2.00000
  212     -3.98206    2.00000
  213     -3.73261    2.00000
  214     -3.66138    2.00000
  215     -3.05577    2.00000
  216     -3.02265    2.00000
  217     -2.98394    2.00000
  218     -2.96913    2.00000
  219     -2.93389    2.00000
  220     -2.92395    2.00000
  221     -2.84717    2.00000
  222     -2.82774    2.00000
  223     -2.77871    2.00000
  224     -2.74175    2.00000
  225     -2.70726    2.00000
  226     -2.59704    2.00000
  227     -2.57844    2.00000
  228     -2.56562    2.00000
  229     -2.54044    2.00000
  230     -2.48341    2.00000
  231     -2.40755    2.00000
  232     -2.40167    2.00000
  233     -2.36044    2.00000
  234     -2.34792    2.00000
  235     -2.31987    2.00000
  236     -2.27689    2.00000
  237     -2.18817    2.00000
  238     -2.14465    2.00000
  239     -2.12292    2.00000
  240     -2.09859    2.00000
  241     -2.03170    2.00000
  242     -2.02172    2.00000
  243     -1.98662    2.00000
  244     -1.95064    2.00000
  245     -1.91290    2.00000
  246     -1.88753    2.00000
  247     -1.87101    2.00000
  248     -1.79904    2.00000
  249     -1.76117    2.00000
  250     -1.70750    2.00000
  251     -1.70486    2.00000
  252     -1.64593    2.00000
  253     -1.62431    2.00000
  254     -1.58133    2.00000
  255     -1.50307    2.00000
  256     -1.44027    2.00000
  257     -1.41834    2.00000
  258     -1.38518    2.00000
  259     -1.34778    2.00000
  260     -1.31243    2.00000
  261     -1.28859    2.00000
  262     -1.18911    2.00000
  263     -1.18302    2.00000
  264     -1.17754    2.00000
  265     -1.11739    2.00000
  266     -1.03325    2.00000
  267     -0.98562    2.00000
  268     -0.96536    1.99999
  269     -0.96114    1.99999
  270     -0.90783    1.99998
  271     -0.90048    1.99998
  272     -0.85548    1.99995
  273     -0.83708    1.99993
  274     -0.83450    1.99993
  275     -0.74625    1.99959
  276     -0.74401    1.99957
  277     -0.70463    1.99905
  278     -0.66205    1.99777
  279     -0.58962    1.99056
  280     -0.55777    1.98222
  281     -0.50853    1.95310
  282     -0.45288    1.86380
  283     -0.44786    1.85049
  284     -0.33813    1.15929
  285     -0.26265    0.46712
  286     -0.26142    0.45839
  287     -0.19554    0.14749
  288     -0.18949    0.13179
  289      0.54928    0.00000
  290      0.64354    0.00000
  291      0.82510    0.00000
  292      1.21944    0.00000
  293      1.31296    0.00000
  294      1.33932    0.00000
  295      1.39671    0.00000
  296      1.50167    0.00000
  297      1.57425    0.00000
  298      1.64986    0.00000
  299      1.67683    0.00000
  300      1.84112    0.00000
  301      1.85717    0.00000
  302      1.97466    0.00000
  303      2.06122    0.00000
  304      2.11574    0.00000
  305      2.17276    0.00000
  306      2.25099    0.00000
  307      2.29371    0.00000
  308      2.31298    0.00000
  309      2.34451    0.00000
  310      2.38235    0.00000
  311      2.45656    0.00000
  312      2.46694    0.00000
  313      2.58958    0.00000
  314      2.61615    0.00000
  315      2.66096    0.00000
  316      2.69772    0.00000
  317      2.73952    0.00000
  318      2.78331    0.00000
  319      2.82866    0.00000
  320      2.83671    0.00000
  321      2.93940    0.00000
  322      2.96779    0.00000
  323      3.00897    0.00000
  324      3.13999    0.00000
  325      3.14854    0.00000
  326      3.17382    0.00000
  327      3.20687    0.00000
  328      3.26500    0.00000
  329      3.31494    0.00000
  330      3.34421    0.00000
  331      3.39381    0.00000
  332      3.43197    0.00000
  333      3.67428    0.00000
  334      3.73114    0.00000
  335      3.87269    0.00000
  336      3.89048    0.00000
  337      3.96966    0.00000
  338      4.01890    0.00000
  339      4.02860    0.00000
  340      4.06916    0.00000
  341      4.15624    0.00000
  342      4.16008    0.00000
  343      4.23804    0.00000
  344      4.30090    0.00000
  345      4.34537    0.00000
  346      4.42224    0.00000
  347      4.43311    0.00000
  348      4.45543    0.00000
  349      4.47274    0.00000
  350      4.49507    0.00000
  351      4.54565    0.00000
  352      4.63604    0.00000
  353      4.67264    0.00000
  354      4.69092    0.00000
  355      4.75032    0.00000
  356      4.83221    0.00000
  357      4.84612    0.00000
  358      4.87071    0.00000
  359      4.91512    0.00000
  360      4.93895    0.00000
  361      4.99522    0.00000
  362      4.99884    0.00000
  363      5.09325    0.00000
  364      5.10526    0.00000
  365      5.18570    0.00000
  366      5.20297    0.00000
  367      5.25708    0.00000
  368      5.29083    0.00000
  369      5.36692    0.00000
  370      5.40690    0.00000
  371      5.42726    0.00000
  372      5.44787    0.00000
  373      5.45538    0.00000
  374      5.53292    0.00000
  375      5.55400    0.00000
  376      5.65566    0.00000
  377      5.66701    0.00000
  378      5.73650    0.00000
  379      5.74628    0.00000
  380      5.89252    0.00000
  381      5.91327    0.00000
  382      6.00251    0.00000
  383      6.02326    0.00000
  384      6.08299    0.00000
  385      6.14187    0.00000
  386      6.18960    0.00000
  387      6.26657    0.00000
  388      6.27474    0.00000
  389      6.33954    0.00000
  390      6.38851    0.00000
  391      6.42126    0.00000
  392      6.47568    0.00000
  393      6.48999    0.00000
  394      6.62528    0.00000
  395      6.67667    0.00000
  396      6.73731    0.00000
  397      6.78018    0.00000
  398      6.78134    0.00000
  399      6.81046    0.00000
  400      6.82938    0.00000
  401      6.95097    0.00000
  402      6.99994    0.00000
  403      7.00688    0.00000
  404      7.10000    0.00000
  405      7.10025    0.00000
  406      7.20083    0.00000
  407      7.23780    0.00000
  408      7.32430    0.00000
  409      7.34260    0.00000
  410      7.34764    0.00000
  411      7.47440    0.00000
  412      7.69730    0.00000
  413      7.74003    0.00000

Writing to scf.gpw (mode='all')

Timing:                              incl.     excl.
-----------------------------------------------------------
Basic WFS set positions:             0.003     0.003   0.0% |
Basis functions set positions:       0.218     0.218   0.0% |
LCAO WFS Initialize:                15.862     0.117   0.0% |
 Hamiltonian:                       15.745     0.000   0.0% |
  Atomic:                            0.370     0.023   0.0% |
   XC Correction:                    0.347     0.347   0.0% |
  Calculate atomic Hamiltonians:     0.027     0.027   0.0% |
  Communicate:                       0.306     0.306   0.0% |
  Hartree integrate/restrict:        0.010     0.010   0.0% |
  Initialize Hamiltonian:            0.001     0.001   0.0% |
  Poisson:                          14.772    14.772   1.4% ||
  XC 3D grid:                        0.257     0.257   0.0% |
  vbar:                              0.001     0.001   0.0% |
SCF-cycle:                        1015.955     0.047   0.0% |
 Density:                          148.979     0.001   0.0% |
  Atomic density matrices:          93.803    93.803   9.0% |---|
  Mix:                               4.461     4.461   0.4% |
  Multipole moments:                 0.096     0.096   0.0% |
  Normalize:                         0.024     0.024   0.0% |
  Pseudo density:                   50.595     0.008   0.0% |
   Calculate density matrix:        48.222    48.222   4.6% |-|
   Construct density:                2.363     2.363   0.2% |
   Symmetrize density:               0.001     0.001   0.0% |
 Hamiltonian:                      125.229     0.004   0.0% |
  Atomic:                            7.683     0.048   0.0% |
   XC Correction:                    7.635     7.635   0.7% |
  Calculate atomic Hamiltonians:     0.638     0.638   0.1% |
  Communicate:                       6.759     6.759   0.7% |
  Hartree integrate/restrict:        0.341     0.341   0.0% |
  Poisson:                         103.005   103.005   9.9% |---|
  XC 3D grid:                        6.774     6.774   0.7% |
  vbar:                              0.024     0.024   0.0% |
 LCAO eigensolver:                 741.699     0.200   0.0% |
  Calculate projections:             0.002     0.002   0.0% |
  DenseAtomicCorrection:             0.002     0.002   0.0% |
  Distribute overlap matrix:        63.516    63.516   6.1% |-|
  Orbital Layouts:                 673.622   673.622  64.9% |-------------------------|
  Potential matrix:                  2.792     2.792   0.3% |
  Sum over cells:                    1.565     1.565   0.2% |
Set symmetry:                        0.001     0.001   0.0% |
TCI: Calculate S, T, P:              0.430     0.430   0.0% |
TCI: Evaluate splines:               1.034     1.034   0.1% |
Other:                               5.162     5.162   0.5% |
-----------------------------------------------------------
Total:                                      1038.665 100.0%

Memory usage: 252.46 MiB
Date: Wed Feb 13 18:22:32 2019
