
  ___ ___ ___ _ _ _  
 |   |   |_  | | | | 
 | | | | | . | | | | 
 |__ |  _|___|_____|  1.4.0
 |___|_|             

User:   chaolian@i24
Date:   Thu Feb 14 15:53:57 2019
Arch:   x86_64
Pid:    161539
Python: 3.4.5
gpaw:   /bigdata/wonglab/chaolian/.conda/envs/gpaw/lib/python3.4/site-packages/gpaw
_gpaw:  /bigdata/wonglab/chaolian/.conda/envs/gpaw/bin/gpaw-python (00677bce83)
ase:    /bigdata/wonglab/chaolian/.conda/envs/gpaw/lib/python3.4/site-packages/ase (version 3.16.2)
numpy:  /bigdata/wonglab/chaolian/.conda/envs/gpaw/lib/python3.4/site-packages/numpy (version 1.11.3)
scipy:  /bigdata/wonglab/chaolian/.conda/envs/gpaw/lib/python3.4/site-packages/scipy (version 0.18.1)
units:  Angstrom and eV
cores:  24

Input parameters:
  basis: dzp
  kpts: [2 1 1]
  mode: lcao
  occupations: {name: fermi-dirac,
                width: 0.05}
  xc: PBE

System changes: positions, numbers, cell, pbc, initial_charges, initial_magmoms 

Initialize ...

As-setup:
  name: Arsenic
  id: bf96491e5ab01ad111b1ee6203e85afa
  Z: 33
  valence: 5
  core: 28
  charge: 0.0
  file: /rhome/chaolian/bigdata/gpaw-setups-0.9.20000/As.PBE.gz
  cutoffs: 1.06(comp), 1.87(filt), 2.96(core), lmax=2
  valence states:
                energy  radius
    4s(2.00)   -14.487   1.058
    4p(3.00)    -5.196   1.058
    *s          12.725   1.058
    *p          22.016   1.058
    *d           0.000   1.058

  LCAO basis set for As:
    Name: dzp
    File: /rhome/chaolian/bigdata/gpaw-setups-0.9.20000/As.dzp.basis.gz
    Number of radial functions: 5
    Number of spherical harmonics: 13
      l=0, rc=6.1250 Bohr: 4s-sz confined orbital
      l=1, rc=7.9531 Bohr: 4p-sz confined orbital
      l=0, rc=3.4219 Bohr: 4s-dz split-valence wave
      l=1, rc=4.6094 Bohr: 4p-dz split-valence wave
      l=2, rc=7.9531 Bohr: d-type Gaussian polarization

In-setup:
  name: Indium
  id: 4115a36869ad701825fde81bee9eb9d4
  Z: 49
  valence: 13
  core: 36
  charge: 0.0
  file: /rhome/chaolian/bigdata/gpaw-setups-0.9.20000/In.PBE.gz
  cutoffs: 1.14(comp), 2.09(filt), 2.48(core), lmax=2
  valence states:
                energy  radius
    5s(2.00)    -8.203   1.185
    5p(1.00)    -2.521   1.244
    4d(10.00)   -18.629   1.148
    *s          19.008   1.185
    *p          24.691   1.244
    *d           8.583   1.148

  LCAO basis set for In:
    Name: dzp
    File: /rhome/chaolian/bigdata/gpaw-setups-0.9.20000/In.dzp.basis.gz
    Number of radial functions: 7
    Number of spherical harmonics: 23
      l=0, rc=7.7188 Bohr: 5s-sz confined orbital
      l=1, rc=10.7500 Bohr: 5p-sz confined orbital
      l=2, rc=4.4219 Bohr: 4d-sz confined orbital
      l=0, rc=4.5312 Bohr: 5s-dz split-valence wave
      l=1, rc=6.4688 Bohr: 5p-dz split-valence wave
      l=2, rc=2.7344 Bohr: 4d-dz split-valence wave
      l=2, rc=10.7500 Bohr: d-type Gaussian polarization

Reference energy: -7087308.584329

Spin-paired calculation

Occupation numbers:
  Fermi-Dirac: width=0.0500 eV

Convergence criteria:
  Maximum total energy change: 0.0005 eV / electron
  Maximum integral of absolute density change: 0.0001 electrons
  Maximum integral of absolute eigenstate change: 4e-08 eV^2
  Maximum number of iterations: 333

Symmetries present (total): 1

  ( 1  0  0)
  ( 0  1  0)
  ( 0  0  1)

2 k-points: 2 x 1 x 1 Monkhorst-Pack grid
1 k-point in the irreducible part of the Brillouin zone
       k-points in crystal coordinates                weights
   0:     0.25000000    0.00000000    0.00000000          2/2

Wave functions: LCAO
  Diagonalizer: Serial LAPACK
  Atomic Correction: dense with blas
  Datatype: complex
 

Eigensolver
   LCAO using direct dense diagonalizer 

Densities:
  Coarse grid: 44*84*124 grid
  Fine grid: 88*168*248 grid
  Total Charge: 0.000000 

Density mixing:
  Method: separate
  Backend: pulay
  Linear mixing parameter: 0.05
  Mixing with 5 old densities
  Damping of long wave oscillations: 50 

Hamiltonian:
  XC and Coulomb potentials evaluated on a 88*168*248 grid
  Using the PBE Exchange-Correlation functional
  Interpolation: tri-quintic (5. degree polynomial)
  Poisson solver: Jacobi solver with 4 multi-grid levels
    Coarsest grid: 11 x 21 x 31 points
    Warning: Coarse grid has more than 24 points.
             More multi-grid levels recommended.
    Stencil: 6*3+1=19 point O(h^6) finite-difference Laplacian
    Max iterations: 1000
    Tolerance: 2.000000e-10 

Memory estimate:
  Process memory now: 108.05 MiB
  Calculator: 81.92 MiB
    Density: 15.05 MiB
      Arrays: 3.79 MiB
      Localized functions: 9.81 MiB
      Mixer: 1.46 MiB
    Hamiltonian: 5.97 MiB
      Arrays: 2.48 MiB
      XC: 0.00 MiB
      Poisson: 2.82 MiB
      vbar: 0.67 MiB
    Wavefunctions: 60.89 MiB
      C [qnM]: 7.31 MiB
      S, T [2 x qmm]: 40.50 MiB
      P [aqMi]: 0.05 MiB
      TCI: 0.00 MiB
      BasisFunctions: 13.04 MiB
      Eigensolver: 0.00 MiB

Total number of cores used: 24
Domain decomposition: 2 x 3 x 4

Number of atoms: 64
Number of atomic orbitals: 1152
Number of bands in calculation: 416
Bands to converge: occupied states only
Number of valence electrons: 576

... initialized

Initializing position-dependent things.

Density initialized from atomic densities
           .--------------------.  
          /|                    |  
         / |                    |  
        /  |                    |  
       /   |                    |  
      /    |                    |  
     /     |                    |  
    /      |                    |  
   /       |                    |  
  /        |                    |  
 *         |     As        As   |  
 |         |   In         In    |  
 |       As|       As           |  
 |         In         IIn       |  
 |         |                    |  
 |    As   | In  As  In     In  |  
 |        AIn        In         |  
 | In      | In                 |  
 |      AAs|   InAIAs     Ins   |  
 |         |                    |  
 |  In     InIIn      IIn       |  
 |   As    |  AsAs       As     |  
 |         |                    |  
 | As    IInAAs    InIns        |  
 |         |                    |  
 |    InIn |     IIn            |  
 |      AAs|      AsAs          |  
 |         |                    |  
 |  Ins    |  InAs              |  
 |         |                    |  
 |         |                    |  
 | As      .-As-----------------.  
 |        /                    /   
 |       /                    /    
 |      /                    /     
 |     /                    /      
 |    /                    /       
 |   /                    /        
 |  /                    /         
 | /                    /          
 |/                    /           
 *--------------------*            

Positions:
   0 As     0.394565    7.268467   17.891313    ( 0.0000,  0.0000,  0.0000)
   1 As     0.397110   11.945722   17.888549    ( 0.0000,  0.0000,  0.0000)
   2 As     4.634771    7.269475   17.892170    ( 0.0000,  0.0000,  0.0000)
   3 As     4.635031   11.945722   17.889206    ( 0.0000,  0.0000,  0.0000)
   4 In     0.384195    1.076472   18.505110    ( 0.0000,  0.0000,  0.0000)
   5 In     4.626414    1.077207   18.506570    ( 0.0000,  0.0000,  0.0000)
   6 In     2.516343    5.665506   17.472971    ( 0.0000,  0.0000,  0.0000)
   7 In     2.519499    9.620952   16.598021    ( 0.0000,  0.0000,  0.0000)
   8 In     2.517322   13.552077   17.473483    ( 0.0000,  0.0000,  0.0000)
   9 In     6.784810    5.615318   17.718589    ( 0.0000,  0.0000,  0.0000)
  10 In     6.791886    9.615280   18.211208    ( 0.0000,  0.0000,  0.0000)
  11 In     6.786423   13.600340   17.717593    ( 0.0000,  0.0000,  0.0000)
  12 As     2.513617    3.043474   17.018590    ( 0.0000,  0.0000,  0.0000)
  13 As     2.515290   16.174927   17.019931    ( 0.0000,  0.0000,  0.0000)
  14 As     6.783909    3.034384   17.066563    ( 0.0000,  0.0000,  0.0000)
  15 As     6.785071   16.183645   17.071977    ( 0.0000,  0.0000,  0.0000)
  16 In     0.359419    3.187948   15.334290    ( 0.0000,  0.0000,  0.0000)
  17 In     5.282489    7.420127   15.225939    ( 0.0000,  0.0000,  0.0000)
  18 In     5.286891   11.803791   15.220814    ( 0.0000,  0.0000,  0.0000)
  19 In     0.360246   16.033521   15.338157    ( 0.0000,  0.0000,  0.0000)
  20 In     4.667173    3.184748   15.336135    ( 0.0000,  0.0000,  0.0000)
  21 In     8.276733    7.422530   15.227329    ( 0.0000,  0.0000,  0.0000)
  22 In     8.277708   11.801169   15.221609    ( 0.0000,  0.0000,  0.0000)
  23 In     4.669408   16.034791   15.338949    ( 0.0000,  0.0000,  0.0000)
  24 As     0.374431    1.070373   13.721157    ( 0.0000,  0.0000,  0.0000)
  25 As     0.376246    5.325232   13.734690    ( 0.0000,  0.0000,  0.0000)
  26 As     0.403386    9.609675   13.856073    ( 0.0000,  0.0000,  0.0000)
  27 As     0.377244   13.900621   13.732730    ( 0.0000,  0.0000,  0.0000)
  28 As     4.650596    1.069921   13.719964    ( 0.0000,  0.0000,  0.0000)
  29 As     4.647962    5.321601   13.733920    ( 0.0000,  0.0000,  0.0000)
  30 As     4.620828    9.610191   13.856180    ( 0.0000,  0.0000,  0.0000)
  31 As     4.648553   13.902524   13.731833    ( 0.0000,  0.0000,  0.0000)
  32 In     2.512230    1.065880   12.120000    ( 0.0000,  0.0000,  0.0000)
  33 In     2.512230    5.336800   12.120000    ( 0.0000,  0.0000,  0.0000)
  34 In     2.512230    9.607730   12.120000    ( 0.0000,  0.0000,  0.0000)
  35 In     2.512230   13.878660   12.120000    ( 0.0000,  0.0000,  0.0000)
  36 In     6.783160    1.065880   12.120000    ( 0.0000,  0.0000,  0.0000)
  37 In     6.783160    5.336800   12.120000    ( 0.0000,  0.0000,  0.0000)
  38 In     6.783160    9.607730   12.120000    ( 0.0000,  0.0000,  0.0000)
  39 In     6.783160   13.878660   12.120000    ( 0.0000,  0.0000,  0.0000)
  40 As     2.512230    3.201340   10.610000    ( 0.0000,  0.0000,  0.0000)
  41 As     2.512230    7.472270   10.610000    ( 0.0000,  0.0000,  0.0000)
  42 As     2.512230   11.743190   10.610000    ( 0.0000,  0.0000,  0.0000)
  43 As     2.512230   16.014120   10.610000    ( 0.0000,  0.0000,  0.0000)
  44 As     6.783160    3.201340   10.610000    ( 0.0000,  0.0000,  0.0000)
  45 As     6.783160    7.472270   10.610000    ( 0.0000,  0.0000,  0.0000)
  46 As     6.783160   11.743190   10.610000    ( 0.0000,  0.0000,  0.0000)
  47 As     6.783160   16.014120   10.610000    ( 0.0000,  0.0000,  0.0000)
  48 In     0.376770    3.201340    9.100000    ( 0.0000,  0.0000,  0.0000)
  49 In     0.376770    7.472270    9.100000    ( 0.0000,  0.0000,  0.0000)
  50 In     0.376770   11.743190    9.100000    ( 0.0000,  0.0000,  0.0000)
  51 In     0.376770   16.014120    9.100000    ( 0.0000,  0.0000,  0.0000)
  52 In     4.647690    3.201340    9.100000    ( 0.0000,  0.0000,  0.0000)
  53 In     4.647690    7.472270    9.100000    ( 0.0000,  0.0000,  0.0000)
  54 In     4.647690   11.743190    9.100000    ( 0.0000,  0.0000,  0.0000)
  55 In     4.647690   16.014120    9.100000    ( 0.0000,  0.0000,  0.0000)
  56 As     0.376770    1.065880    7.590000    ( 0.0000,  0.0000,  0.0000)
  57 As     0.376770    5.336800    7.590000    ( 0.0000,  0.0000,  0.0000)
  58 As     0.376770    9.607730    7.590000    ( 0.0000,  0.0000,  0.0000)
  59 As     0.376770   13.878660    7.590000    ( 0.0000,  0.0000,  0.0000)
  60 As     4.647690    1.065880    7.590000    ( 0.0000,  0.0000,  0.0000)
  61 As     4.647690    5.336800    7.590000    ( 0.0000,  0.0000,  0.0000)
  62 As     4.647690    9.607730    7.590000    ( 0.0000,  0.0000,  0.0000)
  63 As     4.647690   13.878660    7.590000    ( 0.0000,  0.0000,  0.0000)

Unit cell:
           periodic     x           y           z      points  spacing
  1. axis:    yes    8.540000    0.000000    0.000000    44     0.1941
  2. axis:    yes    0.000000   17.080000    0.000000    84     0.2033
  3. axis:    yes    0.000000    0.000000   25.000000   124     0.2016

  Lengths:   8.540000  17.080000  25.000000
  Angles:   90.000000  90.000000  90.000000

Effective grid spacing dv^(1/3) = 0.1996

                     log10-error:    total        iterations:
           time      wfs    density  energy       fermi  poisson
iter:   1  15:54:44          +inf  -222.646428    4      111    
iter:   2  15:55:23         -1.30  -221.596542    4      54     
iter:   3  15:56:03         -1.34  -219.026708    4      56     
iter:   4  15:56:45         -1.47  -218.805342    4      59     
iter:   5  15:57:28         -1.77  -218.530186    5      56     
iter:   6  15:58:08         -1.96  -218.327370    4      40     
iter:   7  15:58:59         -2.25  -218.100910    3      50     
iter:   8  15:59:38         -2.53  -218.086497    3      32     
iter:   9  16:00:15         -2.63  -218.074330    3      28     
iter:  10  16:00:56         -2.78  -218.066221    2      11     
iter:  11  16:01:34         -2.89  -218.050951    3      24     
iter:  12  16:02:13         -3.13  -218.045006    3      16     
iter:  13  16:02:51         -3.23  -218.045347    3      6      
iter:  14  16:03:29         -3.32  -218.045797    3      10     
iter:  15  16:04:07         -3.65  -218.045111    3      9      
iter:  16  16:04:45         -3.77  -218.048079    2      6      
iter:  17  16:05:23         -3.89  -218.048885    3      9      
iter:  18  16:06:01         -3.94  -218.046951    2      7      
iter:  19  16:06:38         -4.13  -218.047485    2      3      

Converged after 19 iterations.

Dipole moment: (-184.303520, 22.165340, 2.693904) |e|*Ang

Energy contributions relative to reference atoms: (reference = -7087308.584329)

Kinetic:       +490.461808
Potential:     -452.863289
External:        +0.000000
XC:            -257.843065
Entropy (-ST):   -0.281532
Local:           +2.337827
--------------------------
Free energy:   -218.188251
Extrapolated:  -218.047485

Fermi level: -0.20862

 Band  Eigenvalues  Occupancy
    0    -14.92539    2.00000
    1    -14.92078    2.00000
    2    -14.89011    2.00000
    3    -14.88688    2.00000
    4    -14.85851    2.00000
    5    -14.85365    2.00000
    6    -14.82764    2.00000
    7    -14.82471    2.00000
    8    -14.81907    2.00000
    9    -14.81410    2.00000
   10    -14.81107    2.00000
   11    -14.79821    2.00000
   12    -14.79534    2.00000
   13    -14.79080    2.00000
   14    -14.78872    2.00000
   15    -14.78242    2.00000
   16    -14.78056    2.00000
   17    -14.77949    2.00000
   18    -14.77773    2.00000
   19    -14.76928    2.00000
   20    -14.76451    2.00000
   21    -14.75438    2.00000
   22    -14.75137    2.00000
   23    -14.73603    2.00000
   24    -14.71911    2.00000
   25    -14.66023    2.00000
   26    -14.63920    2.00000
   27    -14.63634    2.00000
   28    -14.63155    2.00000
   29    -14.62378    2.00000
   30    -14.60530    2.00000
   31    -14.59970    2.00000
   32    -14.59322    2.00000
   33    -14.59134    2.00000
   34    -14.58847    2.00000
   35    -14.58600    2.00000
   36    -14.58451    2.00000
   37    -14.57986    2.00000
   38    -14.57962    2.00000
   39    -14.57448    2.00000
   40    -14.57416    2.00000
   41    -14.57257    2.00000
   42    -14.57077    2.00000
   43    -14.57038    2.00000
   44    -14.56610    2.00000
   45    -14.56480    2.00000
   46    -14.56259    2.00000
   47    -14.55785    2.00000
   48    -14.54604    2.00000
   49    -14.54200    2.00000
   50    -14.54142    2.00000
   51    -14.53344    2.00000
   52    -14.53016    2.00000
   53    -14.52672    2.00000
   54    -14.51688    2.00000
   55    -14.51106    2.00000
   56    -14.50778    2.00000
   57    -14.50458    2.00000
   58    -14.50275    2.00000
   59    -14.49764    2.00000
   60    -14.49364    2.00000
   61    -14.49200    2.00000
   62    -14.48754    2.00000
   63    -14.48711    2.00000
   64    -14.48051    2.00000
   65    -14.47425    2.00000
   66    -14.47182    2.00000
   67    -14.46952    2.00000
   68    -14.46457    2.00000
   69    -14.46242    2.00000
   70    -14.46203    2.00000
   71    -14.46132    2.00000
   72    -14.45682    2.00000
   73    -14.45183    2.00000
   74    -14.44963    2.00000
   75    -14.44788    2.00000
   76    -14.44696    2.00000
   77    -14.44644    2.00000
   78    -14.44418    2.00000
   79    -14.43359    2.00000
   80    -14.43140    2.00000
   81    -14.42906    2.00000
   82    -14.42224    2.00000
   83    -14.41797    2.00000
   84    -14.41646    2.00000
   85    -14.41546    2.00000
   86    -14.40963    2.00000
   87    -14.40896    2.00000
   88    -14.40677    2.00000
   89    -14.40561    2.00000
   90    -14.40424    2.00000
   91    -14.39874    2.00000
   92    -14.39023    2.00000
   93    -14.37997    2.00000
   94    -14.37308    2.00000
   95    -14.36376    2.00000
   96    -14.36322    2.00000
   97    -14.36300    2.00000
   98    -14.36216    2.00000
   99    -14.35850    2.00000
  100    -14.35623    2.00000
  101    -14.35398    2.00000
  102    -14.34797    2.00000
  103    -14.34779    2.00000
  104    -14.33859    2.00000
  105    -14.33626    2.00000
  106    -14.33590    2.00000
  107    -14.33314    2.00000
  108    -14.33065    2.00000
  109    -14.32803    2.00000
  110    -14.31012    2.00000
  111    -14.30198    2.00000
  112    -14.28832    2.00000
  113    -14.27594    2.00000
  114    -14.27170    2.00000
  115    -14.26801    2.00000
  116    -14.25805    2.00000
  117    -14.25394    2.00000
  118    -14.25358    2.00000
  119    -14.25096    2.00000
  120    -14.18095    2.00000
  121    -14.17174    2.00000
  122    -14.16379    2.00000
  123    -14.15977    2.00000
  124    -14.15362    2.00000
  125    -14.15136    2.00000
  126    -14.14123    2.00000
  127    -14.13649    2.00000
  128    -14.13228    2.00000
  129    -14.11678    2.00000
  130    -14.10896    2.00000
  131    -14.10736    2.00000
  132    -14.09920    2.00000
  133    -14.09573    2.00000
  134    -14.09564    2.00000
  135    -14.09087    2.00000
  136    -14.07590    2.00000
  137    -14.06614    2.00000
  138    -14.06571    2.00000
  139    -14.03813    2.00000
  140    -14.03732    2.00000
  141    -14.03597    2.00000
  142    -14.03447    2.00000
  143    -14.02611    2.00000
  144    -13.99512    2.00000
  145    -13.98793    2.00000
  146    -13.97649    2.00000
  147    -13.97630    2.00000
  148    -13.97338    2.00000
  149    -13.97319    2.00000
  150    -13.96800    2.00000
  151    -13.95835    2.00000
  152    -13.95783    2.00000
  153    -13.95774    2.00000
  154    -13.95422    2.00000
  155    -13.95262    2.00000
  156    -13.94794    2.00000
  157    -13.94624    2.00000
  158    -13.94555    2.00000
  159    -13.93758    2.00000
  160    -11.45865    2.00000
  161    -11.10713    2.00000
  162    -11.09535    2.00000
  163    -11.02785    2.00000
  164    -10.80709    2.00000
  165    -10.79686    2.00000
  166    -10.71271    2.00000
  167    -10.55161    2.00000
  168    -10.50538    2.00000
  169    -10.49223    2.00000
  170    -10.48931    2.00000
  171    -10.45228    2.00000
  172    -10.36102    2.00000
  173    -10.35192    2.00000
  174    -10.27597    2.00000
  175    -10.26568    2.00000
  176    -10.26259    2.00000
  177    -10.23742    2.00000
  178    -10.17494    2.00000
  179    -10.04850    2.00000
  180    -10.03804    2.00000
  181     -9.99369    2.00000
  182     -9.93605    2.00000
  183     -9.92301    2.00000
  184     -9.76738    2.00000
  185     -9.67440    2.00000
  186     -9.50480    2.00000
  187     -9.49165    2.00000
  188     -9.48592    2.00000
  189     -9.47121    2.00000
  190     -9.30413    2.00000
  191     -9.17361    2.00000
  192     -6.08984    2.00000
  193     -6.04280    2.00000
  194     -5.75531    2.00000
  195     -5.69325    2.00000
  196     -5.58779    2.00000
  197     -5.56401    2.00000
  198     -5.47283    2.00000
  199     -5.41520    2.00000
  200     -5.39317    2.00000
  201     -5.34361    2.00000
  202     -5.33880    2.00000
  203     -5.31093    2.00000
  204     -5.27634    2.00000
  205     -5.25103    2.00000
  206     -5.19525    2.00000
  207     -4.99195    2.00000
  208     -4.94151    2.00000
  209     -4.89117    2.00000
  210     -4.85507    2.00000
  211     -4.81383    2.00000
  212     -4.74808    2.00000
  213     -4.67362    2.00000
  214     -4.65550    2.00000
  215     -4.57708    2.00000
  216     -4.42479    2.00000
  217     -4.29463    2.00000
  218     -4.17817    2.00000
  219     -3.89721    2.00000
  220     -3.82998    2.00000
  221     -3.60847    2.00000
  222     -3.54060    2.00000
  223     -3.10982    2.00000
  224     -2.97375    2.00000
  225     -2.92255    2.00000
  226     -2.89551    2.00000
  227     -2.83439    2.00000
  228     -2.78799    2.00000
  229     -2.71717    2.00000
  230     -2.68490    2.00000
  231     -2.66727    2.00000
  232     -2.62926    2.00000
  233     -2.61834    2.00000
  234     -2.52527    2.00000
  235     -2.45300    2.00000
  236     -2.45182    2.00000
  237     -2.37373    2.00000
  238     -2.36846    2.00000
  239     -2.27716    2.00000
  240     -2.18263    2.00000
  241     -2.15057    2.00000
  242     -2.11891    2.00000
  243     -2.09710    2.00000
  244     -2.08463    2.00000
  245     -2.00769    2.00000
  246     -2.00040    2.00000
  247     -1.96686    2.00000
  248     -1.96299    2.00000
  249     -1.86751    2.00000
  250     -1.86007    2.00000
  251     -1.85138    2.00000
  252     -1.83456    2.00000
  253     -1.72597    2.00000
  254     -1.68223    2.00000
  255     -1.64426    2.00000
  256     -1.60249    2.00000
  257     -1.53746    2.00000
  258     -1.51835    2.00000
  259     -1.48665    2.00000
  260     -1.48090    2.00000
  261     -1.43734    2.00000
  262     -1.43417    2.00000
  263     -1.42929    2.00000
  264     -1.35270    2.00000
  265     -1.32427    2.00000
  266     -1.28130    2.00000
  267     -1.20700    2.00000
  268     -1.04195    2.00000
  269     -1.00133    2.00000
  270     -0.89384    2.00000
  271     -0.85499    2.00000
  272     -0.83794    1.99999
  273     -0.79398    1.99998
  274     -0.73625    1.99995
  275     -0.63538    1.99961
  276     -0.58879    1.99900
  277     -0.54934    1.99781
  278     -0.53666    1.99717
  279     -0.52809    1.99665
  280     -0.48153    1.99151
  281     -0.45186    1.98469
  282     -0.39418    1.95227
  283     -0.39191    1.95011
  284     -0.38381    1.94159
  285     -0.31632    1.79208
  286     -0.30035    1.72459
  287     -0.28270    1.62963
  288     -0.17096    0.64025
  289     -0.13979    0.40310
  290      0.37654    0.00002
  291      0.50961    0.00000
  292      0.52963    0.00000
  293      0.62756    0.00000
  294      0.83717    0.00000
  295      0.95916    0.00000
  296      1.10457    0.00000
  297      1.25586    0.00000
  298      1.27556    0.00000
  299      1.28588    0.00000
  300      1.30411    0.00000
  301      1.48290    0.00000
  302      1.49184    0.00000
  303      1.69593    0.00000
  304      1.70684    0.00000
  305      1.85470    0.00000
  306      1.86194    0.00000
  307      1.91257    0.00000
  308      1.99310    0.00000
  309      2.05294    0.00000
  310      2.08488    0.00000
  311      2.14742    0.00000
  312      2.19942    0.00000
  313      2.24696    0.00000
  314      2.40061    0.00000
  315      2.45296    0.00000
  316      2.49093    0.00000
  317      2.58790    0.00000
  318      2.60819    0.00000
  319      2.69439    0.00000
  320      2.69647    0.00000
  321      2.77431    0.00000
  322      2.85874    0.00000
  323      2.86591    0.00000
  324      3.01358    0.00000
  325      3.03835    0.00000
  326      3.08633    0.00000
  327      3.14089    0.00000
  328      3.15196    0.00000
  329      3.18634    0.00000
  330      3.23977    0.00000
  331      3.28875    0.00000
  332      3.32737    0.00000
  333      3.34706    0.00000
  334      3.36525    0.00000
  335      3.47648    0.00000
  336      3.48021    0.00000
  337      3.60434    0.00000
  338      3.65676    0.00000
  339      3.73149    0.00000
  340      3.81563    0.00000
  341      3.89385    0.00000
  342      3.92554    0.00000
  343      3.99310    0.00000
  344      4.05240    0.00000
  345      4.06411    0.00000
  346      4.16865    0.00000
  347      4.17560    0.00000
  348      4.22345    0.00000
  349      4.33050    0.00000
  350      4.38007    0.00000
  351      4.43828    0.00000
  352      4.46049    0.00000
  353      4.50331    0.00000
  354      4.52402    0.00000
  355      4.56469    0.00000
  356      4.64683    0.00000
  357      4.78151    0.00000
  358      4.78570    0.00000
  359      4.83606    0.00000
  360      4.87486    0.00000
  361      4.91641    0.00000
  362      4.99062    0.00000
  363      4.99821    0.00000
  364      5.02505    0.00000
  365      5.05267    0.00000
  366      5.14562    0.00000
  367      5.16550    0.00000
  368      5.22988    0.00000
  369      5.26650    0.00000
  370      5.31366    0.00000
  371      5.38803    0.00000
  372      5.40739    0.00000
  373      5.43281    0.00000
  374      5.49855    0.00000
  375      5.60525    0.00000
  376      5.62395    0.00000
  377      5.63379    0.00000
  378      5.66786    0.00000
  379      5.74182    0.00000
  380      5.74540    0.00000
  381      5.76037    0.00000
  382      5.79752    0.00000
  383      5.89474    0.00000
  384      5.91747    0.00000
  385      5.93264    0.00000
  386      5.96542    0.00000
  387      5.97829    0.00000
  388      6.06135    0.00000
  389      6.10048    0.00000
  390      6.20376    0.00000
  391      6.21413    0.00000
  392      6.28614    0.00000
  393      6.33281    0.00000
  394      6.38134    0.00000
  395      6.47744    0.00000
  396      6.51228    0.00000
  397      6.55830    0.00000
  398      6.59458    0.00000
  399      6.70589    0.00000
  400      6.73503    0.00000
  401      6.80940    0.00000
  402      6.87190    0.00000
  403      6.90835    0.00000
  404      6.92514    0.00000
  405      6.95413    0.00000
  406      6.97393    0.00000
  407      7.05309    0.00000
  408      7.11981    0.00000
  409      7.15825    0.00000
  410      7.16546    0.00000
  411      7.18784    0.00000
  412      7.30146    0.00000
  413      7.34296    0.00000
  414      7.39324    0.00000
  415      7.40732    0.00000

Writing to scf.gpw (mode='all')

Timing:                              incl.     excl.
-----------------------------------------------------------
Basic WFS set positions:             0.004     0.004   0.0% |
Basis functions set positions:       0.143     0.143   0.0% |
LCAO WFS Initialize:                 6.827     0.044   0.0% |
 Hamiltonian:                        6.782     0.000   0.0% |
  Atomic:                            0.283     0.002   0.0% |
   XC Correction:                    0.282     0.282   0.0% |
  Calculate atomic Hamiltonians:     0.016     0.016   0.0% |
  Communicate:                       0.246     0.246   0.0% |
  Hartree integrate/restrict:        0.007     0.007   0.0% |
  Initialize Hamiltonian:            0.000     0.000   0.0% |
  Poisson:                           5.945     5.945   0.8% |
  XC 3D grid:                        0.283     0.283   0.0% |
  vbar:                              0.001     0.001   0.0% |
SCF-cycle:                         746.669     0.031   0.0% |
 Density:                           87.704     0.001   0.0% |
  Atomic density matrices:          44.468    44.468   5.8% |-|
  Mix:                               0.506     0.506   0.1% |
  Multipole moments:                 0.033     0.033   0.0% |
  Normalize:                         0.020     0.020   0.0% |
  Pseudo density:                   42.677     0.006   0.0% |
   Calculate density matrix:        42.055    42.055   5.5% |-|
   Construct density:                0.614     0.614   0.1% |
   Symmetrize density:               0.001     0.001   0.0% |
 Hamiltonian:                       48.480     0.003   0.0% |
  Atomic:                            5.093     0.023   0.0% |
   XC Correction:                    5.070     5.070   0.7% |
  Calculate atomic Hamiltonians:     0.216     0.216   0.0% |
  Communicate:                       4.443     4.443   0.6% |
  Hartree integrate/restrict:        0.120     0.120   0.0% |
  Poisson:                          33.671    33.671   4.4% |-|
  XC 3D grid:                        4.915     4.915   0.6% |
  vbar:                              0.019     0.019   0.0% |
 LCAO eigensolver:                 610.453     0.197   0.0% |
  Calculate projections:             0.001     0.001   0.0% |
  DenseAtomicCorrection:             0.002     0.002   0.0% |
  Distribute overlap matrix:        41.979    41.979   5.5% |-|
  Orbital Layouts:                 565.783   565.783  74.3% |-----------------------------|
  Potential matrix:                  0.846     0.846   0.1% |
  Sum over cells:                    1.644     1.644   0.2% |
Set symmetry:                        0.001     0.001   0.0% |
TCI: Calculate S, T, P:              0.419     0.419   0.1% |
TCI: Evaluate splines:               1.361     1.361   0.2% |
Other:                               6.065     6.065   0.8% |
-----------------------------------------------------------
Total:                                       761.488 100.0%

Memory usage: 242.58 MiB
Date: Thu Feb 14 16:06:39 2019
